<?xml version="1.0" encoding="UTF-8"?>

<!-- generated on Fri Aug  6 19:52:27 2021 by Eclipse SUMO sumo Version 1.9.0
<configuration xmlns:xsi="http://www.w3.org/2001/XMLSchema-instance" xsi:noNamespaceSchemaLocation="http://sumo.dlr.de/xsd/sumoConfiguration.xsd">

    <input>
        <net-file value="/Users/karolinabogacka/config-smaller-berlin/osm.net.xml"/>
        <route-files value="/Users/karolinabogacka/config-smaller-berlin/trips.trips.xml"/>
        <additional-files value="/Users/karolinabogacka/config-smaller-berlin/osm_stops.add.xml"/>
    </input>

    <output>
        <vehroute-output value="/Users/karolinabogacka/config-smaller-berlin/vehroutes.xml"/>
        <stop-output value="/Users/karolinabogacka/config-smaller-berlin/stopinfos.xml"/>
    </output>

    <time>
        <begin value="0"/>
    </time>

    <processing>
        <ignore-route-errors value="true"/>
    </processing>

    <routing>
        <device.rerouting.adaptation-interval value="0"/>
    </routing>

    <report>
        <error-log value="/Users/karolinabogacka/config-smaller-berlin/trips.trips.xml.errorlog"/>
        <no-step-log value="true"/>
    </report>

</configuration>
-->

<routes xmlns:xsi="http://www.w3.org/2001/XMLSchema-instance" xsi:noNamespaceSchemaLocation="http://sumo.dlr.de/xsd/routes_file.xsd">
    <vehicle id="0_bus_265:0" type="pt_bus" depart="3.00" departLane="1" arrival="111.00">
        <route edges="375311154#0 375311154#1 375311154#2 375311154#3 375311154#4 375311154#6 375311154#7 541763977#1"/>
        <stop busStop="3352479223" duration="30.00"/>
    </vehicle>

    <vehicle id="3_train_S1:0" type="pt_train" depart="17.00" departLane="0" arrival="140.00">
        <route edges="459344272 459344270#1"/>
        <stop busStop="4946539237" duration="30.00"/>
    </vehicle>

    <vehicle id="4_train_S1:1" type="pt_train" depart="27.00" departLane="0" arrival="145.00">
        <route edges="459344269"/>
        <stop busStop="322796388" duration="30.00"/>
    </vehicle>

    <vehicle id="6_bus_200:1" type="pt_bus" depart="55.00" departLane="1" arrival="145.00">
        <route edges="375311154#0 375311154#1 375311154#2 375311154#3 375311154#4 375311154#6 375311154#7 541763977#1"/>
        <stop busStop="3352479223" duration="30.00"/>
    </vehicle>

    <vehicle id="13_bus_M48:0" type="pt_bus" depart="165.00" departLane="1" arrival="222.00">
        <route edges="710761406#0 710761406#1"/>
        <stop busStop="6287386729" duration="30.00"/>
    </vehicle>

    <vehicle id="5_bus_200:0" type="pt_bus" depart="52.00" departLane="1" arrival="224.00">
        <route edges="4611722#0 168515533#2 168515533#4 168515533#5 375312063#0 375312063#2 110786129#1"/>
        <stop busStop="3352479250" duration="30.00"/>
        <stop busStop="3352479224" duration="30.00"/>
    </vehicle>

    <vehicle id="14_bus_M48:1" type="pt_bus" depart="201.00" departLane="1" arrival="293.00">
        <route edges="710761406#1 197160273#1 335462921#1"/>
        <stop busStop="6287386729" duration="30.00"/>
    </vehicle>

    <vehicle id="2_bus_100:1" type="pt_bus" depart="15.00" departLane="1" arrival="317.00">
        <route edges="24240246#0 24240246#2 24240246#3 236092221#0 236092221#1 236092221#2 236092221#3 342968607#1 461526152#0 340498982#0 340498982#2 340498982#3 340498982#4 340498982#5 340498982#8 340498982#9 354528932#0 354528932#1 251884680 339201217#0 339201217#1 15971196 54048862#0 54048862#1 54048862#3 831694400"/>
        <stop busStop="271388393" duration="30.00"/>
        <stop busStop="3869306771" duration="30.00"/>
        <stop busStop="3870475228" duration="30.00"/>
        <stop busStop="3867910421" duration="30.00"/>
    </vehicle>

    <vehicle id="1_bus_100:0" type="pt_bus" depart="15.00" departLane="1" arrival="345.00">
        <route edges="339201219 541763974 61584187#1 61584187#2 61584187#3 61584187#4 54048863 15971197#0 15971197#1 4611699 751602168 169195795#0 169195795#1 169195795#4 169195795#5 169195795#6 169195795#7 169195795#9 882389494 340498988#0 188386313#1 188386313#2 24913304#1 24913304#2 24913304#3"/>
        <stop busStop="3867910420" duration="30.00"/>
        <stop busStop="271296293" duration="30.00"/>
        <stop busStop="272408975" duration="30.00"/>
        <stop busStop="271373068" duration="30.00"/>
    </vehicle>

    <vehicle id="19_bus_248:0" type="pt_bus" depart="321.00" departLane="4" arrival="398.00">
        <route edges="4611722#0 42747981#2"/>
        <stop busStop="1361328318" duration="30.00"/>
    </vehicle>

    <vehicle id="22_train_S2:0" type="pt_train" depart="346.00" departLane="0" arrival="469.00">
        <route edges="459344272 459344270#1"/>
        <stop busStop="4946539237" duration="30.00"/>
    </vehicle>

    <vehicle id="7_tram_12:0" type="pt_tram" depart="58.00" departLane="0" arrival="470.00">
        <route edges="-22820560#3 -22820560#1 -22820560#0 93584121#1 144014237#0 144014237#1 144014237#2 144014228#0 144014228#1 144014228#2"/>
        <stop busStop="-247600965" duration="30.00"/>
        <stop busStop="3922258748" duration="30.00"/>
        <stop busStop="2175753204" duration="30.00"/>
    </vehicle>

    <vehicle id="23_train_S2:1" type="pt_train" depart="353.00" departLane="0" arrival="471.00">
        <route edges="459344269"/>
        <stop busStop="322796388" duration="30.00"/>
    </vehicle>

    <vehicle id="24_train_S25:0" type="pt_train" depart="379.00" departLane="0" arrival="536.00">
        <route edges="459344272 459344270#1"/>
        <stop busStop="4946539237" duration="30.00"/>
    </vehicle>

    <vehicle id="20_subway_U5:0" type="pt_subway" depart="326.00" departLane="0" arrival="546.00">
        <route edges="421618236 248099627 942849696 942849695"/>
        <stop busStop="7057285550" duration="30.00"/>
        <stop busStop="8087330616" duration="30.00"/>
        <stop busStop="7974955393" duration="30.00"/>
    </vehicle>

    <vehicle id="25_train_S25:1" type="pt_train" depart="431.00" departLane="0" arrival="549.00">
        <route edges="459344269"/>
        <stop busStop="322796388" duration="30.00"/>
    </vehicle>

    <vehicle id="29_subway_U6:1" type="pt_subway" depart="418.00" departLane="0" arrival="569.00">
        <route edges="335043673#0 335043673#1 335043673#2 387125527 295255789 465637630"/>
        <stop busStop="8170769020" duration="30.00"/>
        <stop busStop="2182805353" duration="30.00"/>
    </vehicle>

    <vehicle id="28_subway_U6:0" type="pt_subway" depart="406.00" departLane="0" arrival="595.00">
        <route edges="295255796 169724406 295250353#1 295250353#2 295376548"/>
        <stop busStop="3904484932" duration="30.00"/>
        <stop busStop="4940781828" duration="30.00"/>
        <stop busStop="8170794617" duration="30.00"/>
    </vehicle>

    <vehicle id="8_tram_12:1" type="pt_tram" depart="93.00" departLane="0" arrival="602.00">
        <route edges="144014228#2 167272512#0 167272512#1 -195411594#2 -195411594#1"/>
        <stop busStop="2175753204" duration="30.00"/>
        <stop busStop="1673526976" duration="30.00"/>
        <stop busStop="-1823298700" duration="30.00"/>
    </vehicle>

    <vehicle id="31_train_S2:2" type="pt_train" depart="437.00" departLane="0" arrival="603.00">
        <route edges="459344272 459344270#1"/>
        <stop busStop="4946539237" duration="30.00"/>
    </vehicle>

    <vehicle id="21_subway_U5:1" type="pt_subway" depart="331.00" departLane="0" arrival="627.00">
        <route edges="942849698 942849697 71326270 23439780 421618230"/>
        <stop busStop="8196661137" duration="30.00"/>
        <stop busStop="7974928190" duration="30.00"/>
        <stop busStop="8090274121" duration="30.00"/>
        <stop busStop="253846340" duration="30.00"/>
    </vehicle>

    <vehicle id="32_train_S2:3" type="pt_train" depart="509.00" departLane="0" arrival="627.00">
        <route edges="459344269"/>
        <stop busStop="322796388" duration="30.00"/>
    </vehicle>

    <vehicle id="27_subway_U2:1" type="pt_subway" depart="389.00" departLane="0" arrival="633.00">
        <route edges="11685868 387106271#0 199847307#0 -199847311#0 387106271#2 199847347#0 199847347#1 -391559413"/>
        <stop busStop="29495049" duration="30.00"/>
        <stop busStop="29495047" duration="30.00"/>
        <stop busStop="524657889" duration="30.00"/>
        <stop busStop="-29495041" duration="30.00"/>
    </vehicle>

    <vehicle id="9_tram_M1:0" type="pt_tram" depart="119.00" departLane="0" arrival="641.00">
        <route edges="144014230#3 167272512#0 167272512#1 -195411594#2 -195411594#1"/>
        <stop busStop="247603398" duration="30.00"/>
        <stop busStop="1673526976" duration="30.00"/>
        <stop busStop="-1823298700" duration="30.00"/>
    </vehicle>

    <vehicle id="26_subway_U2:0" type="pt_subway" depart="383.00" departLane="0" arrival="641.00">
        <route edges="391559412 207993050 387106270#0 387106270#1 387106270#2 387106269"/>
        <stop busStop="2098466936" duration="30.00"/>
        <stop busStop="2182805355" duration="30.00"/>
        <stop busStop="2098622298" duration="30.00"/>
        <stop busStop="2098466340" duration="30.00"/>
    </vehicle>

    <vehicle id="39_train_S26:1" type="pt_train" depart="535.00" departLane="0" arrival="670.00">
        <route edges="459344272 459344270#1"/>
        <stop busStop="4946539237" duration="30.00"/>
    </vehicle>

    <vehicle id="37_bus_265:1" type="pt_bus" depart="508.00" departLane="1" arrival="693.00">
        <route edges="4611722#0 168515533#2 168515533#4 168515533#5 375312063#0 375312063#2 110786129#1"/>
        <stop busStop="3352479250" duration="30.00"/>
        <stop busStop="3352479224" duration="30.00"/>
    </vehicle>

    <vehicle id="38_train_S26:0" type="pt_train" depart="587.00" departLane="0" arrival="705.00">
        <route edges="459344269"/>
        <stop busStop="322796388" duration="30.00"/>
    </vehicle>

    <vehicle id="35_bus_147:0" type="pt_bus" depart="485.00" departLane="1" arrival="775.00">
        <route edges="465376240#0 195411604 11483007#0 -169999355#2 -194069450#2 -882389497 171423001#0 171423001#1 171423001#2 35557143#1 389101365#0 389101365#3 66071366#0 66071366#1 66071366#2 66071366#3 23755950#0 23755950#1 23755950#2 4611696#1 4611696#4 4611696#5 8008608 -120675240#4 -120675240#3 -120675240#2"/>
        <stop busStop="-3869306770" duration="30.00"/>
        <stop busStop="3869306767" duration="30.00"/>
        <stop busStop="3869306774" duration="30.00"/>
    </vehicle>

    <vehicle id="36_bus_147:1" type="pt_bus" depart="497.00" departLane="1" arrival="821.00">
        <route edges="120675240#0 120675240#3 120675240#4 -8008608 -4611696#5 -4611696#4 -4611696#3 -23755950#4 -23755950#1 -23755950#0 -66071366#4 -66071366#2 -66071366#1 -66071366#0 -389101365#4 -389101365#2 -35557143#4 196850609#0 196850609#1 196850609#2 882389497 194069450#0 169999355#0 -11483007#2 22972195#2 465376239"/>
        <stop busStop="-3869306773" duration="30.00"/>
        <stop busStop="-5824647400" duration="30.00"/>
        <stop busStop="3869306772" duration="30.00"/>
    </vehicle>

    <vehicle id="12_tram_M1:3" type="pt_tram" depart="139.00" departLane="0" arrival="834.00">
        <route edges="-22820560#3 -22820560#1 -22820560#0 93584121#1 144014237#0 144014237#1 144014237#2 144014233#0 144014233#2 144014233#4 144014230#0 144014230#1 144014230#2 144014230#3"/>
        <stop busStop="-247600965" duration="30.00"/>
        <stop busStop="3922258748" duration="30.00"/>
        <stop busStop="247603398" duration="30.00"/>
    </vehicle>

    <vehicle id="11_tram_M1:2" type="pt_tram" depart="132.00" departLane="0" arrival="877.00">
        <route edges="-22820560#3 -22820560#1 -22820560#0 93584121#1 144014237#0 144014237#1 144014237#2 144014233#0 144014233#2 144014233#4 144014230#0 144014230#1 144014230#2 144014230#3"/>
        <stop busStop="-247600965" duration="30.00"/>
        <stop busStop="3922258748" duration="30.00"/>
        <stop busStop="247603398" duration="30.00"/>
    </vehicle>

    <vehicle id="10_tram_M1:1" type="pt_tram" depart="457.00" departLane="0" arrival="950.00">
        <route edges="144014230#3 167272512#0 167272512#1 -195411594#2 -195411594#1"/>
        <stop busStop="247603398" duration="30.00"/>
        <stop busStop="1673526976" duration="30.00"/>
        <stop busStop="-1823298700" duration="30.00"/>
    </vehicle>

    <vehicle id="40_bus_300:0" type="pt_bus" depart="574.00" departLane="1" arrival="1049.00">
        <route edges="339201219 541763974 61584187#1 61584187#2 61584187#3 61584187#4 54048863 15971197#0 15971197#1 4611699 751602168 169195795#0 169195795#1 169195795#4 169195795#5 169195795#6 169195795#7 169195795#9 882389494 340498988#0 188386313#1 188386313#2 24913267#0 24913267#3 4402014#0 4402014#3 326116285#0 326116285#2 326116285#3 4401967#0 335462916 85255870#0 85255869#0 710761407#0 710761407#1 710761407#3 335462921#1"/>
        <stop busStop="3867910420" duration="30.00"/>
        <stop busStop="271296293" duration="30.00"/>
        <stop busStop="272408975" duration="30.00"/>
        <stop busStop="3862767501" duration="30.00"/>
        <stop busStop="272441720" duration="30.00"/>
    </vehicle>

    <vehicle id="41_bus_300:1" type="pt_bus" depart="583.00" departLane="1" arrival="1056.00">
        <route edges="-335462921#4 -710761407#4 -710761407#2 -710761407#0 -85255869#2 -85255870#2 -335462916 -4401967#2 -335462874#2 -326116285#2 -326116285#1 -4402014#3 -4402014#2 -326116286#2 -24913267#2 342968607#1 461526152#0 340498982#0 340498982#2 340498982#3 340498982#4 340498982#5 340498982#8 340498982#9 354528932#0 354528932#1 251884680 339201217#0 339201217#1 15971196 54048862#0 54048862#1 54048862#3 831694400"/>
        <stop busStop="-272441719" duration="30.00"/>
        <stop busStop="-4692172068" duration="30.00"/>
        <stop busStop="3869306771" duration="30.00"/>
        <stop busStop="3870475228" duration="30.00"/>
        <stop busStop="3867910421" duration="30.00"/>
    </vehicle>

    <vehicle id="0" depart="0.00" departLane="best" departPos="random" departSpeed="max">
        <route edges="305153174 305153173 4611693#0 4611693#1 4611693#2 -831860725#2 734578686 15973619#0 15973619#1 15973619#2 15973619#3 15973619#4 15973619#5 15973619#6 15973619#7 15973619#8 4611718#0 147066248#0 -147066248#0"/>
    </vehicle>
    <vehicle id="1" depart="1.00" departLane="best" departPos="random" departSpeed="max">
        <route edges="-4611708#4 -4611708#3 -4611713#0 -66071370 -43231842#3"/>
    </vehicle>
    <vehicle id="2" depart="2.00" departLane="best" departPos="random" departSpeed="max">
        <route edges="43231842#0 43231842#1 43231842#2 43231842#3 66071370 -66071366#4 4773029#0 4773029#1 4773029#2 28251222#0 28251222#1 169195795#4 169195795#5 169195795#6 169195795#7 169195795#9 882389494 340498988#0"/>
    </vehicle>
    <vehicle id="3" depart="3.00" departLane="best" departPos="random" departSpeed="max">
        <route edges="54048862#0 54048862#1 54048862#3 541763974 61584187#1 61584187#2 61584187#3 61584187#4 54048863 15971197#0 15971197#1 4611699 751602168 169195795#0 169195795#1 169195795#4 169195795#5 169195795#6 169195795#7 169195795#9 882389494 340498988#0 188386313#1 188386313#2 24913267#0 24913267#3 4402014#0 4402014#3 326116285#0 326116285#2 326116285#3 4401967#0 335462916 85255870#0 85255869#0 710761407#0 710761407#1 710761407#3 -197160273#2 -197160273#0"/>
    </vehicle>
    <vehicle id="4" depart="4.00" departLane="best" departPos="random" departSpeed="max">
        <route edges="147066248#4 -147066248#4 -147066248#3"/>
    </vehicle>
    <vehicle id="5" depart="5.00" departLane="best" departPos="random" departSpeed="max">
        <route edges="-43231842#2 43231842#2 43231842#3 66071370 -66071366#4 -66071366#2 -66071366#1 -66071366#0 -389101365#4 -389101365#2 -35557143#4 196850609#0 196850609#1 196850609#2 171423001#0"/>
    </vehicle>
    <vehicle id="6" depart="6.00" departLane="best" departPos="random" departSpeed="max">
        <route edges="-147066248#3 -147066248#2 -147066248#1 -147066248#0 4611718#1 -4611714#1 -4611714#0 -4611711#1 -4611711#0 -23755961#2 35557161#5 35557161#6 -35557161#6"/>
    </vehicle>
    <vehicle id="7" depart="7.00" departLane="best" departPos="random" departSpeed="max">
        <route edges="339201217#0 339201217#1 15971196 54048862#0 54048862#1 54048862#3 541763974 61584187#1 61584187#2 61584187#3 61584187#4 54048863 15971197#0 15971197#1 4611699 751602168 169195795#0 169195795#1 340498982#8 340498982#9 -4610524 66071379#1 66071370 4611713#0 4611713#1 23017853 23017852#1 23017852#2"/>
    </vehicle>
    <vehicle id="8" depart="8.00" departLane="best" departPos="random" departSpeed="max">
        <route edges="-43231842#3 43231842#3 66071370 -66071366#4 -66071366#2 -66071366#1 -66071366#0 -4611706#1 -4611706#0 -24242882#3 -24242882#2 24242882#2"/>
    </vehicle>
    <vehicle id="9" depart="9.00" departLane="best" departPos="random" departSpeed="max">
        <route edges="4611710#1 4611710#2 -35557161#3 -35557161#2 -35557161#1 -35557161#0 -389101365#4 -389101365#2 -35557143#4 196850609#0 196850609#1 196850609#2 882389497 194069450#0 169999355#0 -111833185#1"/>
    </vehicle>
    <vehicle id="10" depart="10.00" departLane="best" departPos="random" departSpeed="max">
        <route edges="4611708#4 -4611708#4 -4611708#3 4611713#1 -4611711#1 -4611711#0 4611712 375311153#0 375311153#1"/>
    </vehicle>
    <vehicle id="11" depart="11.00" departLane="best" departPos="random" departSpeed="max">
        <route edges="-66071373#3 -243854725#4 -243854725#3 -243854725#2 22972473#0 22972473#3 22972473#4 22972473#5 24997595#0 24997595#1 -24997595#1"/>
    </vehicle>
    <vehicle id="12" depart="12.00" departLane="best" departPos="random" departSpeed="max">
        <route edges="766868095#1 766868095#2 -22972473#5 -22972473#4 -22972473#3 -22972473#2 389101365#0 389101365#3 66071366#0 66071366#1 -66071366#1"/>
    </vehicle>
    <vehicle id="13" depart="13.00" departLane="best" departPos="random" departSpeed="max">
        <route edges="-22972470#3 -22972470#2 -22972470#1 -22972473#5 -22972473#4 -22972473#3"/>
    </vehicle>
    <vehicle id="14" depart="14.00" departLane="best" departPos="random" departSpeed="max">
        <route edges="4611722#0 -4611714#11 -4611714#10 -4611714#9 -4611714#8 -4611714#7 -4611714#6 -4611714#5 -4611714#4 24509317#0 24509317#1"/>
    </vehicle>
    <vehicle id="15" depart="15.00" departLane="best" departPos="random" departSpeed="max">
        <route edges="4611708#4 -4611708#4 -4611708#3 4611713#1 -4611711#1 -4611711#0 -23755961#2 -23755961#1 -23755961#0 389101374 766868095#1 766868095#2 389101373#1"/>
    </vehicle>
    <vehicle id="16" depart="16.00" departLane="best" departPos="random" departSpeed="max">
        <route edges="22972473#0 22972473#3 22972473#4 22972473#5 22972470#1 375459783#0 375459783#1 840229274"/>
    </vehicle>
    <vehicle id="17" depart="17.00" departLane="best" departPos="random" departSpeed="max">
        <route edges="-930343901#2 -292429062#3 -292429062#2 -292429062#1 -292429062#0 -153698380#2 342968607#1 461526152#0 340498982#0 340498982#2 340498982#3 340498982#4 340498982#5 340498982#8 340498982#9 354528932#0 354528932#1 251884680 339201217#0 339201217#1 15971196 54048862#0 54048862#1 54048862#3 -23121445#5 -23121445#4 -23121445#3 -23121445#2 23121445#2"/>
    </vehicle>
    <vehicle id="18" depart="18.00" departLane="best" departPos="random" departSpeed="max">
        <route edges="4611714#2 -4611714#2 -4611714#1 -4611714#0 -4611713#1 -4611713#0 -66071370 -474362271 -66071379#0 354528932#0 354528932#1 251884680"/>
    </vehicle>
    <vehicle id="19" depart="19.00" departLane="best" departPos="random" departSpeed="max">
        <route edges="47707170#7 47755711#0 -47755711#0 47707171#0 47707171#1 47707171#2 47707171#4 47707171#5 47707171#6 47707171#7 -24997595#1 -24997595#0 389101373#1 389101373#2 23755961#0"/>
    </vehicle>
    <vehicle id="20" depart="20.00" departLane="best" departPos="random" departSpeed="max">
        <route edges="375311154#2 375311154#3 375311154#4 375311154#6 375311154#7 541763977#1 168515533#2 168515533#4 168515533#5 375312063#0 375312063#2 -375311158#2 -375311158#0 375459782#0 375459782#1 -22972470#1 -22972473#5 -22972473#4 -22972473#3 -22972473#2 -35557143#4 196850609#0 196850609#1 196850609#2 882389497 194069450#0 169999355#0 -11483007#2 -158023913#6"/>
    </vehicle>
    <vehicle id="21" depart="21.00" departLane="best" departPos="random" departSpeed="max">
        <route edges="-4402014#2 -874528353#4 -874528353#1 -874528353#0 -4588217 171423001#0 171423001#1 171423001#2 35557143#1 389101365#0 389101365#3 66071366#0 66071366#1 66071366#2 66071366#3 4611713#0 -4611713#0"/>
    </vehicle>
    <vehicle id="22" depart="22.00" departLane="best" departPos="random" departSpeed="max">
        <route edges="-168937986#5 -168937986#4 -168937986#3 -168937986#1 169195795#0 169195795#1 169195795#4 169195795#5 169195795#6 169195795#7 169195795#9 882389494 340498988#0 188386313#1 188386313#2 24913267#0 24913267#3 4402014#0 4402014#3 -4402014#3"/>
    </vehicle>
    <vehicle id="23" depart="23.00" departLane="best" departPos="random" departSpeed="max">
        <route edges="-23017852#0 4611710#0 -4611710#0"/>
    </vehicle>
    <vehicle id="24" depart="24.00" departLane="best" departPos="random" departSpeed="max">
        <route edges="292429062#2 -292429062#2 -292429062#1 -292429062#0 -153698380#2 342968607#1 -194069450#2 -882389497 171423001#0 171423001#1 171423001#2 35557143#1 22972473#0 -840229275 -840229276#0"/>
    </vehicle>
    <vehicle id="25" depart="25.00" departLane="best" departPos="random" departSpeed="max">
        <route edges="-874528353#0 -4588217 171423001#0 171423001#1 171423001#2 35557143#1 22972473#0 22972473#3 22972473#4 22972473#5 22972470#1 -375459782#1"/>
    </vehicle>
    <vehicle id="26" depart="26.00" departLane="best" departPos="random" departSpeed="max">
        <route edges="-4611706#1 -4611706#0 68647306#1 68647306#2 68647306#3 68647306#4 68647306#5"/>
    </vehicle>
    <vehicle id="27" depart="27.00" departLane="best" departPos="random" departSpeed="max">
        <route edges="335462916 85255870#0 -85255870#2 -335462916 -4401967#2 -335462874#2 -326116285#2 -326116285#1 -4402014#3 -4402014#2 -326116286#2 -24913267#2 24913304#1"/>
    </vehicle>
    <vehicle id="28" depart="28.00" departLane="best" departPos="random" departSpeed="max">
        <route edges="-292429062#3 -292429062#2 -292429062#1 -292429062#0 -153698380#2 342968607#1 -194069450#2 -882389497 171423001#0 171423001#1 171423001#2 35557143#1 389101365#0 389101365#3"/>
    </vehicle>
    <vehicle id="29" depart="29.00" departLane="best" departPos="random" departSpeed="max">
        <route edges="-292429056#4 292429056#3 196850609#0 196850609#1 196850609#2 882389497 -882389497"/>
    </vehicle>
    <vehicle id="30" depart="30.00" departLane="best" departPos="random" departSpeed="max">
        <route edges="882389497 -882389497 171423001#0 171423001#1 171423001#2 35557143#1 389101365#0 389101365#3 66071366#0 66071366#1 66071366#2 66071366#3 23755950#0 23755950#1 23755950#2 4611696#1 54781811#0 54781811#1 305153174 305153173"/>
    </vehicle>
    <vehicle id="31" depart="31.00" departLane="best" departPos="random" departSpeed="max">
        <route edges="23121445#3 23121445#4 23121445#5 541763974 61584187#1 61584187#2 61584187#3 61584187#4 54048863 15971197#0 15971197#1 4611699 751602168 169195795#0 169195795#1 -28251222#1 -28251222#0 -4773029#2 -4773029#1 -4773029#0 -66071366#2 -66071366#1 -66071366#0 35557161#0"/>
    </vehicle>
    <vehicle id="32" depart="32.00" departLane="best" departPos="random" departSpeed="max">
        <route edges="4611718#0 4611718#1 -4611714#1 -4611714#0 -4611711#1 -4611711#0 -23755961#2 -23755961#1 -23755961#0 389101374 766868095#1 766868095#2 24997595#0 24997595#1 47707170#0 47707170#1 47707170#3 47707170#4 47707170#5 47707170#6 47707170#7 47755711#0 47755711#1 47755711#2 82488124#0 82488124#1 82488125#0 82488125#1 -710761407#4 -4597325#2 -4597325#1 4597325#1"/>
    </vehicle>
    <vehicle id="33" depart="33.00" departLane="best" departPos="random" departSpeed="max">
        <route edges="-4402014#2 -874528353#4 -874528353#1 -874528353#0 -4588217 171423001#0 171423001#1 171423001#2 35557143#1 389101365#0 389101365#3 66071366#0 66071366#1 66071366#2 66071366#3 4611713#0 4611708#3 -147066248#8 -147066248#7 -147066248#6 -147066248#5 -147066248#4"/>
    </vehicle>
    <vehicle id="34" depart="34.00" departLane="best" departPos="random" departSpeed="max">
        <route edges="-474362271 66071379#1 66071370 -66071366#4 -66071366#2 -66071366#1 -66071366#0 -4611706#1"/>
    </vehicle>
    <vehicle id="35" depart="35.00" departLane="best" departPos="random" departSpeed="max">
        <route edges="-389101365#2 -35557143#4 -292429056#4 -292429056#2 4588220#0 4402014#0 4402014#3 326116285#0 326116285#2 326116285#3 4401967#0 335462916 85255870#0 85255869#0 710761407#0 710761407#1"/>
    </vehicle>
    <vehicle id="36" depart="36.00" departLane="best" departPos="random" departSpeed="max">
        <route edges="4773029#0 -4773029#0 66071366#3 4611713#0 4611713#1 4611714#0 4611714#1 -4611718#1"/>
    </vehicle>
    <vehicle id="38" depart="38.00" departLane="best" departPos="random" departSpeed="max">
        <route edges="66071366#1 66071366#2 66071366#3 23755950#0 23755950#1 23755950#2 -831860725#2 734578686 15973619#0 15973619#1 15973619#2 15973619#3 15973619#4 15973619#5 15973619#6 15973619#7 15973619#8 15973619#9 15973619#10 15973619#11 15973619#12 15973619#13"/>
    </vehicle>
    <vehicle id="39" depart="39.00" departLane="best" departPos="random" departSpeed="max">
        <route edges="-4611706#0 -24242882#3 -24242882#2 -24242882#1 -24242882#0 4588217 874528353#0 874528353#1 874528353#2 4402014#0 4402014#3 326116285#0 326116285#2 326116285#3 4401967#0 335462916 85255870#0 85255869#0 710761407#0 710761407#1 -4597325#2 -4597325#1"/>
    </vehicle>
    <vehicle id="40" depart="40.00" departLane="best" departPos="random" departSpeed="max">
        <route edges="23121445#5 541763974 61584187#1 61584187#2 61584187#3 61584187#4 54048863 15971197#0 15971197#1 4611699 751602168 169195795#0 169195795#1 -28251222#1 -28251222#0 -4773029#2 -4773029#1 -4773029#0 66071366#3 23755950#0 23755950#1 23755950#2 4611696#1 4611696#4 -4611696#4"/>
    </vehicle>
    <vehicle id="41" depart="41.00" departLane="best" departPos="random" departSpeed="max">
        <route edges="23755961#2 4611711#0 4611711#1 -4611713#1 -4611713#0 -66071370 -474362271 -66071379#0 354528932#0 354528932#1 251884680 339201217#0 339201217#1 15971196 54048862#0 54048862#1 54048862#3 541763974"/>
    </vehicle>
    <vehicle id="43" depart="43.00" departLane="best" departPos="random" departSpeed="max">
        <route edges="930343902 -930343901#4 -930343901#3 -930343901#2 -292429062#3 -292429062#2 -292429062#1 -292429062#0 -153698380#2 342968607#1 -194069450#2 -882389497 171423001#0 171423001#1 171423001#2"/>
    </vehicle>
    <vehicle id="44" depart="44.00" departLane="best" departPos="random" departSpeed="max">
        <route edges="-22972470#2 -22972470#1 -22972473#5 -22972473#4 -22972473#3 -22972473#2 -35557143#4 196850609#0 196850609#1 196850609#2 882389497 194069450#0 169999355#0 -11483007#2 -158023913#6"/>
    </vehicle>
    <vehicle id="45" depart="45.00" departLane="best" departPos="random" departSpeed="max">
        <route edges="-23121445#1 23121445#1 23121445#2 23121445#3 23121445#4 23121445#5 541763974 61584187#1 61584187#2 61584187#3 61584187#4 54048863 15971197#0 15971197#1 4611699 751602168 169195795#0 169195795#1 169195795#4 169195795#5 169195795#6 169195795#7 169195795#9 882389494 340498988#0 -194069450#2 -882389497 171423001#0 171423001#1 171423001#2 -292429056#4 -292429056#2 292429056#0"/>
    </vehicle>
    <vehicle id="46" depart="46.00" departLane="best" departPos="random" departSpeed="max">
        <route edges="4611696#5 8008608 -120675240#4 120675240#4 -8008608 -4611696#5 -4611696#4 -4611696#3 -831860725#2 -4611708#4 -147066248#8 -147066248#7 -147066248#6 -147066248#5 147066248#5"/>
    </vehicle>
    <vehicle id="47" depart="47.00" departLane="best" departPos="random" departSpeed="max">
        <route edges="-15973619#6 -15973619#5 -15973619#4 -15973619#3 -15973619#2 -15973619#1 -15973619#0 -734578686 831860725#0 -23755950#4 -23755950#1 -23755950#0 -66071366#4 -66071366#2 -66071366#1 -66071366#0 -389101365#4 -389101365#2 -35557143#4 -292429056#4 -292429056#2 4588220#0 -326116286#2 -24913267#2 153698380#0 292429062#0 292429062#1 292429062#2 292429062#3 930343901#2 -930343901#2"/>
    </vehicle>
    <vehicle id="48" depart="48.00" departLane="best" departPos="random" departSpeed="max">
        <route edges="930343901#4 -930343901#4 -930343901#3 -930343901#2 -292429062#3 -292429062#2 -292429062#1 -292429062#0 -153698380#2 342968607#1 -194069450#2 -882389497 171423001#0 171423001#1 171423001#2 35557143#1 22972473#0 22972473#3 22972473#4 22972473#5 22972470#1"/>
    </vehicle>
    <vehicle id="49" depart="49.00" departLane="best" departPos="random" departSpeed="max">
        <route edges="83517336#0 153698394#1 153698394#2 -66071373#3 -243854725#4 -243854725#3 -243854725#2 22972473#0 22972473#3 22972473#4 22972473#5 24997595#0 24997595#1 47707170#0 47707170#1 47707170#3 47707170#4 47707170#5 47707170#6"/>
    </vehicle>

</routes>
